Generated by Yaff

                  72 atoms
                  96 bonds
                   0 angles 
                   0 dihedrals
                   0 impropers

                   2 atom types
                   1 bond types
                   0 angle types
                   0 dihedral types
                   0 improper types

    0.000000000000000000000000    20.428778546092196677363972 xlo xhi
    0.000000000000000000000000    18.570021244053645403937480 ylo yhi
    0.000000000000000000000000    16.082151435319104848531424 zlo zhi
    0.000000000000000000000000     0.000000000000000000000000     9.285010622026822701968740 xy xz yz
Atoms

    1   1   1     1.800000000000000044408921     3.778237999748713438208370    -2.181366999361752601060971    -3.404783000364152822925234
    2   1   1     1.800000000000000044408921     0.000000000000000000000000     4.362734000613231799547975     3.404783000364152822925234
    3   1   1     1.800000000000000044408921    -3.778237999748713438208370    -2.181366999361752601060971     0.000000000000000000000000
    4   1   2    -0.900000000000000022204460     3.329789999196381078405693     0.566847999677918212846350    -2.191314999610878277991333
    5   1   2    -0.900000000000000022204460    -2.155800000655470949340042     2.600258999098695955609628     4.618249999562576313394402
    6   1   2    -0.900000000000000022204460    -1.173990000430636504447079    -3.167107000666340432815105     1.213468000753274544933902
    7   1   2    -0.900000000000000022204460     1.173990000430636504447079    -3.167107000666340432815105    -4.618249999562576313394402
    8   1   2    -0.900000000000000022204460    -3.329789999196381078405693     0.566847999677918212846350    -1.213468000753274544933902
    9   1   2    -0.900000000000000022204460     2.155800000655470949340042     2.600258999098695955609628     2.191314999610878277991333
   10   1   1     1.800000000000000044408921    -4.262837717910839430146552     2.461138311651658749923399    -3.404783000364152822925234
   11   1   1     1.800000000000000044408921    -8.041075717659552424265712     9.005239311626642262353926     3.404783000364152822925234
   12   1   1     1.800000000000000044408921   -11.819313717408265418384872     2.461138311651658749923399     0.000000000000000000000000
   13   1   2    -0.900000000000000022204460    -4.711285718463171789949229     5.209353310691329674853023    -2.191314999610878277991333
   14   1   2    -0.900000000000000022204460   -10.196875718315023817694964     7.242764310112107750683208     4.618249999562576313394402
   15   1   2    -0.900000000000000022204460    -9.215065718090189150757396     1.475398310347070918169265     1.213468000753274544933902
   16   1   2    -0.900000000000000022204460    -6.867085717228915697774028     1.475398310347070918169265    -4.618249999562576313394402
   17   1   2    -0.900000000000000022204460   -11.370865716855933058582195     5.209353310691329674853023    -1.213468000753274544933902
   18   1   2    -0.900000000000000022204460    -5.885275717004081030836460     7.242764310112107750683208     2.191314999610878277991333
   19   1   1     1.800000000000000044408921     3.778237999748713438208370     7.103643622665069656818559    -3.404783000364152822925234
   20   1   1     1.800000000000000044408921     0.000000000000000000000000    13.647744622640054501516715     3.404783000364152822925234
   21   1   1     1.800000000000000044408921    -3.778237999748713438208370     7.103643622665069656818559     0.000000000000000000000000
   22   1   2    -0.900000000000000022204460     3.329789999196381078405693     9.851858621704741025837393    -2.191314999610878277991333
   23   1   2    -0.900000000000000022204460    -2.155800000655470949340042    11.885269621125518213489158     4.618249999562576313394402
   24   1   2    -0.900000000000000022204460    -1.173990000430636504447079     6.117903621360482269153636     1.213468000753274544933902
   25   1   2    -0.900000000000000022204460     1.173990000430636504447079     6.117903621360482269153636    -4.618249999562576313394402
   26   1   2    -0.900000000000000022204460    -3.329789999196381078405693     9.851858621704741025837393    -1.213468000753274544933902
   27   1   2    -0.900000000000000022204460     2.155800000655470949340042    11.885269621125518213489158     2.191314999610878277991333
   28   1   1     1.800000000000000044408921    -4.262837717910839430146552    11.746148933678480119624510    -3.404783000364152822925234
   29   1   1     1.800000000000000044408921    -8.041075717659552424265712    18.290249933653463187965826     3.404783000364152822925234
   30   1   1     1.800000000000000044408921   -11.819313717408265418384872    11.746148933678480119624510     0.000000000000000000000000
   31   1   2    -0.900000000000000022204460    -4.711285718463171789949229    14.494363932718151488643343    -2.191314999610878277991333
   32   1   2    -0.900000000000000022204460   -10.196875718315023817694964    16.527774932138928676295109     4.618249999562576313394402
   33   1   2    -0.900000000000000022204460    -9.215065718090189150757396    10.760408932373891843781166     1.213468000753274544933902
   34   1   2    -0.900000000000000022204460    -6.867085717228915697774028    10.760408932373891843781166    -4.618249999562576313394402
   35   1   2    -0.900000000000000022204460   -11.370865716855933058582195    14.494363932718151488643343    -1.213468000753274544933902
   36   1   2    -0.900000000000000022204460    -5.885275717004081030836460    16.527774932138928676295109     2.191314999610878277991333
   37   1   1     1.800000000000000044408921     3.778237999748713438208370    -2.181366999361752601060971     6.809606272681945071667542
   38   1   1     1.800000000000000044408921     0.000000000000000000000000     4.362734000613231799547975    13.619172273410251605696430
   39   1   1     1.800000000000000044408921    -3.778237999748713438208370    -2.181366999361752601060971    10.214389273046098338681986
   40   1   2    -0.900000000000000022204460     3.329789999196381078405693     0.566847999677918212846350     8.023074273435220504779863
   41   1   2    -0.900000000000000022204460    -2.155800000655470949340042     2.600258999098695955609628    14.832639272608673763897968
   42   1   2    -0.900000000000000022204460    -1.173990000430636504447079    -3.167107000666340432815105    11.427857273799371995437468
   43   1   2    -0.900000000000000022204460     1.173990000430636504447079    -3.167107000666340432815105     5.596139273483522025287584
   44   1   2    -0.900000000000000022204460    -3.329789999196381078405693     0.566847999677918212846350     9.000921272292824681926504
   45   1   2    -0.900000000000000022204460     2.155800000655470949340042     2.600258999098695955609628    12.405704272656976172584109
   46   1   1     1.800000000000000044408921    -4.262837717910839430146552     2.461138311651658749923399     6.809606272681945071667542
   47   1   1     1.800000000000000044408921    -8.041075717659552424265712     9.005239311626642262353926    13.619172273410251605696430
   48   1   1     1.800000000000000044408921   -11.819313717408265418384872     2.461138311651658749923399    10.214389273046098338681986
   49   1   2    -0.900000000000000022204460    -4.711285718463171789949229     5.209353310691329674853023     8.023074273435220504779863
   50   1   2    -0.900000000000000022204460   -10.196875718315023817694964     7.242764310112107750683208    14.832639272608673763897968
   51   1   2    -0.900000000000000022204460    -9.215065718090189150757396     1.475398310347070918169265    11.427857273799371995437468
   52   1   2    -0.900000000000000022204460    -6.867085717228915697774028     1.475398310347070918169265     5.596139273483522025287584
   53   1   2    -0.900000000000000022204460   -11.370865716855933058582195     5.209353310691329674853023     9.000921272292824681926504
   54   1   2    -0.900000000000000022204460    -5.885275717004081030836460     7.242764310112107750683208    12.405704272656976172584109
   55   1   1     1.800000000000000044408921     3.778237999748713438208370     7.103643622665069656818559     6.809606272681945071667542
   56   1   1     1.800000000000000044408921     0.000000000000000000000000    13.647744622640054501516715    13.619172273410251605696430
   57   1   1     1.800000000000000044408921    -3.778237999748713438208370     7.103643622665069656818559    10.214389273046098338681986
   58   1   2    -0.900000000000000022204460     3.329789999196381078405693     9.851858621704741025837393     8.023074273435220504779863
   59   1   2    -0.900000000000000022204460    -2.155800000655470949340042    11.885269621125518213489158    14.832639272608673763897968
   60   1   2    -0.900000000000000022204460    -1.173990000430636504447079     6.117903621360482269153636    11.427857273799371995437468
   61   1   2    -0.900000000000000022204460     1.173990000430636504447079     6.117903621360482269153636     5.596139273483522025287584
   62   1   2    -0.900000000000000022204460    -3.329789999196381078405693     9.851858621704741025837393     9.000921272292824681926504
   63   1   2    -0.900000000000000022204460     2.155800000655470949340042    11.885269621125518213489158    12.405704272656976172584109
   64   1   1     1.800000000000000044408921    -4.262837717910839430146552    11.746148933678480119624510     6.809606272681945071667542
   65   1   1     1.800000000000000044408921    -8.041075717659552424265712    18.290249933653463187965826    13.619172273410251605696430
   66   1   1     1.800000000000000044408921   -11.819313717408265418384872    11.746148933678480119624510    10.214389273046098338681986
   67   1   2    -0.900000000000000022204460    -4.711285718463171789949229    14.494363932718151488643343     8.023074273435220504779863
   68   1   2    -0.900000000000000022204460   -10.196875718315023817694964    16.527774932138928676295109    14.832639272608673763897968
   69   1   2    -0.900000000000000022204460    -9.215065718090189150757396    10.760408932373891843781166    11.427857273799371995437468
   70   1   2    -0.900000000000000022204460    -6.867085717228915697774028    10.760408932373891843781166     5.596139273483522025287584
   71   1   2    -0.900000000000000022204460   -11.370865716855933058582195    14.494363932718151488643343     9.000921272292824681926504
   72   1   2    -0.900000000000000022204460    -5.885275717004081030836460    16.527774932138928676295109    12.405704272656976172584109

Bonds

    1   1     3    36
    2   1     2     9
    3   1     3     8
    4   1     1    17
    5   1     2    61
    6   1     1     7
    7   1     3     6
    8   1     2    24
    9   1     2     5
   10   1     1    50
   11   1     3    31
   12   1     1     4
   13   1    12    27
   14   1    11    18
   15   1    12    17
   16   1    10     8
   17   1    11    70
   18   1    10    16
   19   1    12    15
   20   1    11    33
   21   1    11    14
   22   1    10    41
   23   1    12    22
   24   1    10    13
   25   1    21    18
   26   1    20    27
   27   1    21    26
   28   1    19    35
   29   1    20    43
   30   1    19    25
   31   1    21    24
   32   1    20     6
   33   1    20    23
   34   1    19    68
   35   1    21    13
   36   1    19    22
   37   1    30     9
   38   1    29    36
   39   1    30    35
   40   1    28    26
   41   1    29    52
   42   1    28    34
   43   1    30    33
   44   1    29    15
   45   1    29    32
   46   1    28    59
   47   1    30     4
   48   1    28    31
   49   1    39    72
   50   1    38    45
   51   1    39    44
   52   1    37    53
   53   1    38    25
   54   1    37    43
   55   1    39    42
   56   1    38    60
   57   1    38    41
   58   1    37    14
   59   1    39    67
   60   1    37    40
   61   1    48    63
   62   1    47    54
   63   1    48    53
   64   1    46    44
   65   1    47    34
   66   1    46    52
   67   1    48    51
   68   1    47    69
   69   1    47    50
   70   1    46     5
   71   1    48    58
   72   1    46    49
   73   1    57    54
   74   1    56    63
   75   1    57    62
   76   1    55    71
   77   1    56     7
   78   1    55    61
   79   1    57    60
   80   1    56    42
   81   1    56    59
   82   1    55    32
   83   1    57    49
   84   1    55    58
   85   1    66    45
   86   1    65    72
   87   1    66    71
   88   1    64    62
   89   1    65    16
   90   1    64    70
   91   1    66    69
   92   1    65    51
   93   1    65    68
   94   1    64    23
   95   1    66    40
   96   1    64    67
